LAMMPS data file of 3x3 CaF2 unitcell
324 atoms
2 atom types
  0.000000  16.548155 xlo xhi
  0.000000  16.548155 ylo yhi
  0.000000  16.548155 zlo zhi

Masses

2   18.9984
1   40.078

Atoms

1      1 -2   0.000000   0.000000   0.000000
2      1 -2  -0.000000   2.758026   2.758026
3      1 -2   2.758026  -0.000000   2.758026
4      1 -2   2.758026   2.758026   0.000000
5      2 1  1.379013   4.137039   4.137039
6      2 1  1.379013   1.379013   4.137039
7      2 1  1.379013   1.379013   1.379013
8      2 1  1.379013   4.137039   1.379013
9      2 1  4.137039   4.137039   1.379013
10     2 1  4.137039   1.379013   1.379013
11     2 1  4.137039   1.379013   4.137039
12     2 1  4.137038   4.137039   4.137039
13     1 -2  -0.000000  -0.000000   5.516052
14     1 -2  -0.000000   2.758026   8.274078
15     1 -2   2.758026  -0.000000   8.274078
16     1 -2   2.758026   2.758026   5.516052
17     2 1  1.379012   4.137038   9.653091
18     2 1  1.379012   1.379013   9.653091
19     2 1  1.379013   1.379013   6.895065
20     2 1  1.379012   4.137039   6.895065
21     2 1  4.137038   4.137039   6.895065
22     2 1  4.137038   1.379013   6.895065
23     2 1  4.137038   1.379013   9.653091
24     2 1  4.137038   4.137038   9.653091
25     1 -2  -0.000000  -0.000000  11.032104
26     1 -2  -0.000001   2.758025  13.790129
27     1 -2   2.758025  -0.000001  13.790129
28     1 -2   2.758025   2.758025  11.032104
29     2 1  1.379012   4.137038  15.169142
30     2 1  1.379012   1.379012  15.169142
31     2 1  1.379012   1.379012  12.411116
32     2 1  1.379012   4.137038  12.411116
33     2 1  4.137038   4.137038  12.411116
34     2 1  4.137038   1.379012  12.411116
35     2 1  4.137038   1.379012  15.169142
36     2 1  4.137038   4.137038  15.169142
37     1 -2  -0.000000   5.516052   0.000000
38     1 -2  -0.000000   8.274078   2.758026
39     1 -2   2.758026   5.516052   2.758026
40     1 -2   2.758026   8.274078   0.000000
41     2 1  1.379012   9.653090   4.137039
42     2 1  1.379012   6.895065   4.137039
43     2 1  1.379013   6.895065   1.379013
44     2 1  1.379012   9.653091   1.379013
45     2 1  4.137038   9.653091   1.379013
46     2 1  4.137038   6.895065   1.379013
47     2 1  4.137038   6.895065   4.137039
48     2 1  4.137038   9.653090   4.137039
49     1 -2  -0.000000   5.516052   5.516052
50     1 -2  -0.000001   8.274077   8.274078
51     1 -2   2.758025   5.516051   8.274078
52     1 -2   2.758025   8.274077   5.516052
53     2 1  1.379012   9.653090   9.653091
54     2 1  1.379012   6.895064   9.653091
55     2 1  1.379012   6.895064   6.895065
56     2 1  1.379012   9.653090   6.895065
57     2 1  4.137038   9.653090   6.895065
58     2 1  4.137038   6.895064   6.895065
59     2 1  4.137038   6.895064   9.653091
60     2 1  4.137038   9.653090   9.653091
61     1 -2  -0.000001   5.516051  11.032104
62     1 -2  -0.000001   8.274077  13.790129
63     1 -2   2.758025   5.516051  13.790129
64     1 -2   2.758025   8.274077  11.032104
65     2 1  1.379012   9.653090  15.169142
66     2 1  1.379012   6.895064  15.169142
67     2 1  1.379012   6.895064  12.411116
68     2 1  1.379012   9.653090  12.411116
69     2 1  4.137038   9.653090  12.411116
70     2 1  4.137038   6.895064  12.411116
71     2 1  4.137038   6.895064  15.169142
72     2 1  4.137038   9.653090  15.169142
73     1 -2  -0.000000  11.032104   0.000000
74     1 -2  -0.000001  13.790129   2.758026
75     1 -2   2.758025  11.032103   2.758026
76     1 -2   2.758025  13.790129   0.000000
77     2 1  1.379012  15.169142   4.137039
78     2 1  1.379012  12.411116   4.137039
79     2 1  1.379012  12.411116   1.379013
80     2 1  1.379012  15.169142   1.379013
81     2 1  4.137038  15.169142   1.379013
82     2 1  4.137038  12.411116   1.379013
83     2 1  4.137038  12.411116   4.137039
84     2 1  4.137038  15.169142   4.137039
85     1 -2  -0.000001  11.032103   5.516052
86     1 -2  -0.000001  13.790129   8.274078
87     1 -2   2.758025  11.032103   8.274078
88     1 -2   2.758025  13.790129   5.516052
89     2 1  1.379012  15.169142   9.653091
90     2 1  1.379012  12.411116   9.653091
91     2 1  1.379012  12.411116   6.895065
92     2 1  1.379012  15.169142   6.895065
93     2 1  4.137038  15.169142   6.895065
94     2 1  4.137038  12.411116   6.895065
95     2 1  4.137038  12.411116   9.653091
96     2 1  4.137038  15.169142   9.653091
97     1 -2  -0.000001  11.032103  11.032104
98     1 -2  -0.000001  13.790129  13.790129
99     1 -2   2.758025  11.032103  13.790129
100    1 -2   2.758025  13.790129  11.032104
101    2 1  1.379012  15.169142  15.169142
102    2 1  1.379012  12.411116  15.169142
103    2 1  1.379012  12.411116  12.411116
104    2 1  1.379012  15.169142  12.411116
105    2 1  4.137038  15.169142  12.411116
106    2 1  4.137038  12.411116  12.411116
107    2 1  4.137038  12.411116  15.169142
108    2 1  4.137038  15.169142  15.169142
109    1 -2   5.516052   0.000000   0.000000
110    1 -2   5.516052   2.758026   2.758026
111    1 -2   8.274078  -0.000000   2.758026
112    1 -2   8.274078   2.758026   0.000000
113    2 1  6.895064   4.137039   4.137039
114    2 1  6.895064   1.379013   4.137039
115    2 1  6.895065   1.379013   1.379013
116    2 1  6.895064   4.137039   1.379013
117    2 1  9.653090   4.137039   1.379013
118    2 1  9.653090   1.379013   1.379013
119    2 1  9.653090   1.379013   4.137039
120    2 1  9.653090   4.137039   4.137039
121    1 -2   5.516052  -0.000000   5.516052
122    1 -2   5.516051   2.758026   8.274078
123    1 -2   8.274077  -0.000000   8.274078
124    1 -2   8.274077   2.758026   5.516052
125    2 1  6.895064   4.137038   9.653091
126    2 1  6.895064   1.379013   9.653091
127    2 1  6.895064   1.379013   6.895065
128    2 1  6.895064   4.137039   6.895065
129    2 1  9.653090   4.137039   6.895065
130    2 1  9.653090   1.379013   6.895065
131    2 1  9.653090   1.379013   9.653091
132    2 1  9.653090   4.137038   9.653091
133    1 -2   5.516051  -0.000000  11.032104
134    1 -2   5.516051   2.758025  13.790129
135    1 -2   8.274077  -0.000001  13.790129
136    1 -2   8.274077   2.758025  11.032104
137    2 1  6.895064   4.137038  15.169142
138    2 1  6.895064   1.379012  15.169142
139    2 1  6.895064   1.379012  12.411116
140    2 1  6.895064   4.137038  12.411116
141    2 1  9.653090   4.137038  12.411116
142    2 1  9.653090   1.379012  12.411116
143    2 1  9.653090   1.379012  15.169142
144    2 1  9.653090   4.137038  15.169142
145    1 -2   5.516052   5.516052   0.000000
146    1 -2   5.516051   8.274078   2.758026
147    1 -2   8.274077   5.516052   2.758026
148    1 -2   8.274077   8.274078   0.000000
149    2 1  6.895064   9.653090   4.137039
150    2 1  6.895064   6.895065   4.137039
151    2 1  6.895064   6.895065   1.379013
152    2 1  6.895064   9.653091   1.379013
153    2 1  9.653090   9.653091   1.379013
154    2 1  9.653090   6.895065   1.379013
155    2 1  9.653090   6.895065   4.137039
156    2 1  9.653090   9.653090   4.137039
157    1 -2   5.516051   5.516052   5.516052
158    1 -2   5.516051   8.274077   8.274078
159    1 -2   8.274077   5.516051   8.274078
160    1 -2   8.274077   8.274077   5.516052
161    2 1  6.895064   9.653090   9.653091
162    2 1  6.895064   6.895064   9.653091
163    2 1  6.895064   6.895064   6.895065
164    2 1  6.895064   9.653090   6.895065
165    2 1  9.653090   9.653090   6.895065
166    2 1  9.653090   6.895064   6.895065
167    2 1  9.653090   6.895064   9.653091
168    2 1  9.653090   9.653090   9.653091
169    1 -2   5.516051   5.516051  11.032104
170    1 -2   5.516051   8.274077  13.790129
171    1 -2   8.274077   5.516051  13.790129
172    1 -2   8.274077   8.274077  11.032104
173    2 1  6.895064   9.653090  15.169142
174    2 1  6.895064   6.895064  15.169142
175    2 1  6.895064   6.895064  12.411116
176    2 1  6.895064   9.653090  12.411116
177    2 1  9.653090   9.653090  12.411116
178    2 1  9.653090   6.895064  12.411116
179    2 1  9.653090   6.895064  15.169142
180    2 1  9.653090   9.653090  15.169142
181    1 -2   5.516051  11.032104   0.000000
182    1 -2   5.516051  13.790129   2.758026
183    1 -2   8.274077  11.032103   2.758026
184    1 -2   8.274077  13.790129   0.000000
185    2 1  6.895064  15.169142   4.137039
186    2 1  6.895064  12.411116   4.137039
187    2 1  6.895064  12.411116   1.379013
188    2 1  6.895064  15.169142   1.379013
189    2 1  9.653090  15.169142   1.379013
190    2 1  9.653090  12.411116   1.379013
191    2 1  9.653090  12.411116   4.137039
192    2 1  9.653090  15.169142   4.137039
193    1 -2   5.516051  11.032103   5.516052
194    1 -2   5.516051  13.790129   8.274078
195    1 -2   8.274077  11.032103   8.274078
196    1 -2   8.274077  13.790129   5.516052
197    2 1  6.895064  15.169142   9.653091
198    2 1  6.895064  12.411116   9.653091
199    2 1  6.895064  12.411116   6.895065
200    2 1  6.895064  15.169142   6.895065
201    2 1  9.653090  15.169142   6.895065
202    2 1  9.653090  12.411116   6.895065
203    2 1  9.653090  12.411116   9.653091
204    2 1  9.653090  15.169142   9.653091
205    1 -2   5.516051  11.032103  11.032104
206    1 -2   5.516051  13.790129  13.790129
207    1 -2   8.274077  11.032103  13.790129
208    1 -2   8.274077  13.790129  11.032104
209    2 1  6.895063  15.169142  15.169142
210    2 1  6.895064  12.411116  15.169142
211    2 1  6.895064  12.411116  12.411116
212    2 1  6.895064  15.169142  12.411116
213    2 1  9.653089  15.169142  12.411116
214    2 1  9.653090  12.411116  12.411116
215    2 1  9.653089  12.411116  15.169142
216    2 1  9.653089  15.169142  15.169142
217    1 -2  11.032104   0.000000   0.000000
218    1 -2  11.032103   2.758026   2.758026
219    1 -2  13.790129  -0.000000   2.758026
220    1 -2  13.790129   2.758026   0.000000
221    2 1 12.411116   4.137039   4.137039
222    2 1 12.411116   1.379013   4.137039
223    2 1 12.411116   1.379013   1.379013
224    2 1 12.411116   4.137039   1.379013
225    2 1 15.169142   4.137039   1.379013
226    2 1 15.169142   1.379013   1.379013
227    2 1 15.169142   1.379013   4.137039
228    2 1 15.169142   4.137039   4.137039
229    1 -2  11.032103  -0.000000   5.516052
230    1 -2  11.032103   2.758026   8.274078
231    1 -2  13.790129  -0.000000   8.274078
232    1 -2  13.790129   2.758026   5.516052
233    2 1 12.411116   4.137038   9.653091
234    2 1 12.411116   1.379013   9.653091
235    2 1 12.411116   1.379013   6.895065
236    2 1 12.411116   4.137039   6.895065
237    2 1 15.169142   4.137039   6.895065
238    2 1 15.169142   1.379013   6.895065
239    2 1 15.169142   1.379013   9.653091
240    2 1 15.169142   4.137038   9.653091
241    1 -2  11.032103  -0.000000  11.032104
242    1 -2  11.032103   2.758025  13.790129
243    1 -2  13.790129  -0.000001  13.790129
244    1 -2  13.790129   2.758025  11.032104
245    2 1 12.411116   4.137038  15.169142
246    2 1 12.411116   1.379012  15.169142
247    2 1 12.411116   1.379012  12.411116
248    2 1 12.411116   4.137038  12.411116
249    2 1 15.169142   4.137038  12.411116
250    2 1 15.169142   1.379012  12.411116
251    2 1 15.169142   1.379012  15.169142
252    2 1 15.169142   4.137038  15.169142
253    1 -2  11.032103   5.516052   0.000000
254    1 -2  11.032103   8.274078   2.758026
255    1 -2  13.790129   5.516052   2.758026
256    1 -2  13.790129   8.274078   0.000000
257    2 1 12.411116   9.653090   4.137039
258    2 1 12.411116   6.895065   4.137039
259    2 1 12.411116   6.895065   1.379013
260    2 1 12.411116   9.653091   1.379013
261    2 1 15.169142   9.653091   1.379013
262    2 1 15.169142   6.895065   1.379013
263    2 1 15.169142   6.895065   4.137039
264    2 1 15.169142   9.653090   4.137039
265    1 -2  11.032103   5.516052   5.516052
266    1 -2  11.032103   8.274077   8.274078
267    1 -2  13.790129   5.516051   8.274078
268    1 -2  13.790129   8.274077   5.516052
269    2 1 12.411116   9.653090   9.653091
270    2 1 12.411116   6.895064   9.653091
271    2 1 12.411116   6.895064   6.895065
272    2 1 12.411116   9.653090   6.895065
273    2 1 15.169142   9.653090   6.895065
274    2 1 15.169142   6.895064   6.895065
275    2 1 15.169142   6.895064   9.653091
276    2 1 15.169142   9.653090   9.653091
277    1 -2  11.032103   5.516051  11.032104
278    1 -2  11.032103   8.274077  13.790129
279    1 -2  13.790129   5.516051  13.790129
280    1 -2  13.790129   8.274077  11.032104
281    2 1 12.411115   9.653090  15.169142
282    2 1 12.411116   6.895064  15.169142
283    2 1 12.411116   6.895064  12.411116
284    2 1 12.411116   9.653090  12.411116
285    2 1 15.169141   9.653090  12.411116
286    2 1 15.169142   6.895064  12.411116
287    2 1 15.169141   6.895064  15.169142
288    2 1 15.169141   9.653090  15.169142
289    1 -2  11.032103  11.032104   0.000000
290    1 -2  11.032103  13.790129   2.758026
291    1 -2  13.790129  11.032103   2.758026
292    1 -2  13.790129  13.790129   0.000000
293    2 1 12.411116  15.169142   4.137039
294    2 1 12.411116  12.411116   4.137039
295    2 1 12.411116  12.411116   1.379013
296    2 1 12.411116  15.169142   1.379013
297    2 1 15.169142  15.169142   1.379013
298    2 1 15.169142  12.411116   1.379013
299    2 1 15.169142  12.411116   4.137039
300    2 1 15.169142  15.169142   4.137039
301    1 -2  11.032103  11.032103   5.516052
302    1 -2  11.032103  13.790129   8.274078
303    1 -2  13.790129  11.032103   8.274078
304    1 -2  13.790129  13.790129   5.516052
305    2 1 12.411115  15.169142   9.653091
306    2 1 12.411116  12.411116   9.653091
307    2 1 12.411116  12.411116   6.895065
308    2 1 12.411116  15.169142   6.895065
309    2 1 15.169141  15.169142   6.895065
310    2 1 15.169142  12.411116   6.895065
311    2 1 15.169141  12.411116   9.653091
312    2 1 15.169141  15.169142   9.653091
313    1 -2  11.032103  11.032103  11.032104
314    1 -2  11.032102  13.790129  13.790129
315    1 -2  13.790128  11.032103  13.790129
316    1 -2  13.790128  13.790129  11.032104
317    2 1 12.411115  15.169142  15.169142
318    2 1 12.411115  12.411116  15.169142
319    2 1 12.411115  12.411116  12.411116
320    2 1 12.411115  15.169142  12.411116
321    2 1 15.169141  15.169142  12.411116
322    2 1 15.169141  12.411116  12.411116
323    2 1 15.169141  12.411116  15.169142
324    2 1 15.169141  15.169142  15.169142
